pkgbase = python-gsd
	pkgdesc = GSD files store trajectories of the HOOMD-blue system state in a binary file with efficient random access to frames and allows all particle and topology properties to vary from one frame to the next.
	pkgver = 3.2.1
	pkgrel = 1
	url = https://github.com/glotzerlab/gsd/
	arch = x86_64
	license = BSD
	depends = cython
	depends = python-numpy
	source = https://github.com/glotzerlab/gsd/archive/v3.2.1.tar.gz
	sha256sums = de6832e7fd063a5e0fcdd9f78fdb627843ea73218473e876f3e8256ab773f37b

pkgname = python-gsd
